# vtk DataFile Version 3.0
Poisson FEM Solution
ASCII
DATASET UNSTRUCTURED_GRID
POINTS 5602 double
-3.000000000000e-05 -2.500000000000e-04 0.000000000000e+00
3.000000000000e-05 -2.500000000000e-04 0.000000000000e+00
3.000000000000e-05 2.500000000000e-04 0.000000000000e+00
-3.000000000000e-05 2.500000000000e-04 0.000000000000e+00
-1.100000000000e-04 -2.500000000000e-04 0.000000000000e+00
-5.000000000000e-05 -2.500000000000e-04 0.000000000000e+00
-5.000000000000e-05 2.500000000000e-04 0.000000000000e+00
-1.100000000000e-04 2.500000000000e-04 0.000000000000e+00
5.000000000000e-05 -2.500000000000e-04 0.000000000000e+00
1.100000000000e-04 -2.500000000000e-04 0.000000000000e+00
1.100000000000e-04 2.500000000000e-04 0.000000000000e+00
5.000000000000e-05 2.500000000000e-04 0.000000000000e+00
-3.000000000000e-04 -4.000000000000e-04 3.000000000000e-04
-3.000000000000e-04 -4.000000000000e-04 0.000000000000e+00
-3.000000000000e-04 4.000000000000e-04 3.000000000000e-04
-3.000000000000e-04 4.000000000000e-04 0.000000000000e+00
3.000000000000e-04 -4.000000000000e-04 3.000000000000e-04
3.000000000000e-04 -4.000000000000e-04 0.000000000000e+00
3.000000000000e-04 4.000000000000e-04 3.000000000000e-04
3.000000000000e-04 4.000000000000e-04 0.000000000000e+00
-2.200000000000e-04 -2.500000000000e-04 0.000000000000e+00
-2.200000000000e-04 -3.700000000000e-04 0.000000000000e+00
2.200000000000e-04 -3.700000000000e-04 0.000000000000e+00
2.200000000000e-04 -2.500000000000e-04 0.000000000000e+00
2.200000000000e-04 2.500000000000e-04 0.000000000000e+00
2.200000000000e-04 3.700000000000e-04 0.000000000000e+00
-2.200000000000e-04 3.700000000000e-04 0.000000000000e+00
-2.200000000000e-04 2.500000000000e-04 0.000000000000e+00
-2.371692252312e-20 -2.500000000000e-04 0.000000000000e+00
3.000000000000e-05 -2.205882352941e-04 0.000000000000e+00
3.000000000000e-05 -1.911764705882e-04 0.000000000000e+00
3.000000000000e-05 -1.617647058824e-04 0.000000000000e+00
3.000000000000e-05 -1.323529411765e-04 0.000000000000e+00
3.000000000000e-05 -1.029411764706e-04 0.000000000000e+00
3.000000000000e-05 -7.352941176471e-05 0.000000000000e+00
3.000000000000e-05 -4.411764705882e-05 0.000000000000e+00
3.000000000000e-05 -1.470588235294e-05 0.000000000000e+00
3.000000000000e-05 1.470588235294e-05 0.000000000000e+00
3.000000000000e-05 4.411764705882e-05 0.000000000000e+00
3.000000000000e-05 7.352941176471e-05 0.000000000000e+00
3.000000000000e-05 1.029411764706e-04 0.000000000000e+00
3.000000000000e-05 1.323529411765e-04 0.000000000000e+00
3.000000000000e-05 1.617647058824e-04 0.000000000000e+00
3.000000000000e-05 1.911764705882e-04 0.000000000000e+00
3.000000000000e-05 2.205882352941e-04 0.000000000000e+00
2.371692252312e-20 2.500000000000e-04 0.000000000000e+00
-3.000000000000e-05 2.205882352941e-04 0.000000000000e+00
-3.000000000000e-05 1.911764705882e-04 0.000000000000e+00
-3.000000000000e-05 1.617647058824e-04 0.000000000000e+00
-3.000000000000e-05 1.323529411765e-04 0.000000000000e+00
-3.000000000000e-05 1.029411764706e-04 0.000000000000e+00
-3.000000000000e-05 7.352941176471e-05 0.000000000000e+00
-3.000000000000e-05 4.411764705882e-05 0.000000000000e+00
-3.000000000000e-05 1.470588235294e-05 0.000000000000e+00
-3.000000000000e-05 -1.470588235294e-05 0.000000000000e+00
-3.000000000000e-05 -4.411764705882e-05 0.000000000000e+00
-3.000000000000e-05 -7.352941176471e-05 0.000000000000e+00
-3.000000000000e-05 -1.029411764706e-04 0.000000000000e+00
-3.000000000000e-05 -1.323529411765e-04 0.000000000000e+00
-3.000000000000e-05 -1.617647058824e-04 0.000000000000e+00
-3.000000000000e-05 -1.911764705882e-04 0.000000000000e+00
-3.000000000000e-05 -2.205882352941e-04 0.000000000000e+00
-8.000000000000e-05 -2.500000000000e-04 0.000000000000e+00
-5.000000000000e-05 -2.205882352941e-04 0.000000000000e+00
-5.000000000000e-05 -1.911764705882e-04 0.000000000000e+00
-5.000000000000e-05 -1.617647058824e-04 0.000000000000e+00
-5.000000000000e-05 -1.323529411765e-04 0.000000000000e+00
-5.000000000000e-05 -1.029411764706e-04 0.000000000000e+00
-5.000000000000e-05 -7.352941176471e-05 0.000000000000e+00
-5.000000000000e-05 -4.411764705882e-05 0.000000000000e+00
-5.000000000000e-05 -1.470588235294e-05 0.000000000000e+00
-5.000000000000e-05 1.470588235294e-05 0.000000000000e+00
-5.000000000000e-05 4.411764705882e-05 0.000000000000e+00
-5.000000000000e-05 7.352941176471e-05 0.000000000000e+00
-5.000000000000e-05 1.029411764706e-04 0.000000000000e+00
-5.000000000000e-05 1.323529411765e-04 0.000000000000e+00
-5.000000000000e-05 1.617647058824e-04 0.000000000000e+00
-5.000000000000e-05 1.911764705882e-04 0.000000000000e+00
-5.000000000000e-05 2.205882352941e-04 0.000000000000e+00
-8.000000000000e-05 2.500000000000e-04 0.000000000000e+00
-1.100000000000e-04 2.205882352941e-04 0.000000000000e+00
-1.100000000000e-04 1.911764705882e-04 0.000000000000e+00
-1.100000000000e-04 1.617647058824e-04 0.000000000000e+00
-1.100000000000e-04 1.323529411765e-04 0.000000000000e+00
-1.100000000000e-04 1.029411764706e-04 0.000000000000e+00
-1.100000000000e-04 7.352941176471e-05 0.000000000000e+00
-1.100000000000e-04 4.411764705882e-05 0.000000000000e+00
-1.100000000000e-04 1.470588235294e-05 0.000000000000e+00
-1.100000000000e-04 -1.470588235294e-05 0.000000000000e+00
-1.100000000000e-04 -4.411764705882e-05 0.000000000000e+00
-1.100000000000e-04 -7.352941176471e-05 0.000000000000e+00
-1.100000000000e-04 -1.029411764706e-04 0.000000000000e+00
-1.100000000000e-04 -1.323529411765e-04 0.000000000000e+00
-1.100000000000e-04 -1.617647058824e-04 0.000000000000e+00
-1.100000000000e-04 -1.911764705882e-04 0.000000000000e+00
-1.100000000000e-04 -2.205882352941e-04 0.000000000000e+00
8.000000000000e-05 -2.500000000000e-04 0.000000000000e+00
1.100000000000e-04 -2.205882352941e-04 0.000000000000e+00
1.100000000000e-04 -1.911764705882e-04 0.000000000000e+00
1.100000000000e-04 -1.617647058824e-04 0.000000000000e+00
1.100000000000e-04 -1.323529411765e-04 0.000000000000e+00
1.100000000000e-04 -1.029411764706e-04 0.000000000000e+00
1.100000000000e-04 -7.352941176471e-05 0.000000000000e+00
1.100000000000e-04 -4.411764705882e-05 0.000000000000e+00
1.100000000000e-04 -1.470588235294e-05 0.000000000000e+00
1.100000000000e-04 1.470588235294e-05 0.000000000000e+00
1.100000000000e-04 4.411764705882e-05 0.000000000000e+00
1.100000000000e-04 7.352941176471e-05 0.000000000000e+00
1.100000000000e-04 1.029411764706e-04 0.000000000000e+00
1.100000000000e-04 1.323529411765e-04 0.000000000000e+00
1.100000000000e-04 1.617647058824e-04 0.000000000000e+00
1.100000000000e-04 1.911764705882e-04 0.000000000000e+00
1.100000000000e-04 2.205882352941e-04 0.000000000000e+00
8.000000000000e-05 2.500000000000e-04 0.000000000000e+00
5.000000000000e-05 2.205882352941e-04 0.000000000000e+00
5.000000000000e-05 1.911764705882e-04 0.000000000000e+00
5.000000000000e-05 1.617647058824e-04 0.000000000000e+00
5.000000000000e-05 1.323529411765e-04 0.000000000000e+00
5.000000000000e-05 1.029411764706e-04 0.000000000000e+00
5.000000000000e-05 7.352941176471e-05 0.000000000000e+00
5.000000000000e-05 4.411764705882e-05 0.000000000000e+00
5.000000000000e-05 1.470588235294e-05 0.000000000000e+00
5.000000000000e-05 -1.470588235294e-05 0.000000000000e+00
5.000000000000e-05 -4.411764705882e-05 0.000000000000e+00
5.000000000000e-05 -7.352941176471e-05 0.000000000000e+00
5.000000000000e-05 -1.029411764706e-04 0.000000000000e+00
5.000000000000e-05 -1.323529411765e-04 0.000000000000e+00
5.000000000000e-05 -1.617647058824e-04 0.000000000000e+00
5.000000000000e-05 -1.911764705882e-04 0.000000000000e+00
5.000000000000e-05 -2.205882352941e-04 0.000000000000e+00
-3.000000000000e-04 -4.000000000000e-04 3.000000000000e-05
-3.000000000000e-04 -4.000000000000e-04 6.000000000000e-05
-3.000000000000e-04 -4.000000000000e-04 9.000000000000e-05
-3.000000000000e-04 -4.000000000000e-04 1.200000000000e-04
-3.000000000000e-04 -4.000000000000e-04 1.500000000000e-04
-3.000000000000e-04 -4.000000000000e-04 1.800000000000e-04
-3.000000000000e-04 -4.000000000000e-04 2.100000000000e-04
-3.000000000000e-04 -4.000000000000e-04 2.400000000000e-04
-3.000000000000e-04 -4.000000000000e-04 2.700000000000e-04
-3.000000000000e-04 -3.703703703704e-04 3.000000000000e-04
-3.000000000000e-04 -3.407407407407e-04 3.000000000000e-04
-3.000000000000e-04 -3.111111111111e-04 3.000000000000e-04
-3.000000000000e-04 -2.814814814815e-04 3.000000000000e-04
-3.000000000000e-04 -2.518518518519e-04 3.000000000000e-04
-3.000000000000e-04 -2.222222222222e-04 3.000000000000e-04
-3.000000000000e-04 -1.925925925926e-04 3.000000000000e-04
-3.000000000000e-04 -1.629629629630e-04 3.000000000000e-04
-3.000000000000e-04 -1.333333333333e-04 3.000000000000e-04
-3.000000000000e-04 -1.037037037037e-04 3.000000000000e-04
-3.000000000000e-04 -7.407407407407e-05 3.000000000000e-04
-3.000000000000e-04 -4.444444444444e-05 3.000000000000e-04
-3.000000000000e-04 -1.481481481481e-05 3.000000000000e-04
-3.000000000000e-04 1.481481481481e-05 3.000000000000e-04
-3.000000000000e-04 4.444444444444e-05 3.000000000000e-04
-3.000000000000e-04 7.407407407407e-05 3.000000000000e-04
-3.000000000000e-04 1.037037037037e-04 3.000000000000e-04
-3.000000000000e-04 1.333333333333e-04 3.000000000000e-04
-3.000000000000e-04 1.629629629630e-04 3.000000000000e-04
-3.000000000000e-04 1.925925925926e-04 3.000000000000e-04
-3.000000000000e-04 2.222222222222e-04 3.000000000000e-04
-3.000000000000e-04 2.518518518519e-04 3.000000000000e-04
-3.000000000000e-04 2.814814814815e-04 3.000000000000e-04
-3.000000000000e-04 3.111111111111e-04 3.000000000000e-04
-3.000000000000e-04 3.407407407407e-04 3.000000000000e-04
-3.000000000000e-04 3.703703703704e-04 3.000000000000e-04
-3.000000000000e-04 4.000000000000e-04 3.000000000000e-05
-3.000000000000e-04 4.000000000000e-04 6.000000000000e-05
-3.000000000000e-04 4.000000000000e-04 9.000000000000e-05
-3.000000000000e-04 4.000000000000e-04 1.200000000000e-04
-3.000000000000e-04 4.000000000000e-04 1.500000000000e-04
[...]
POINT_DATA 5602
SCALARS phi double 1
LOOKUP_TABLE default
-1.311773211999e-12
-1.811182817451e-12
-1.561136376460e-12
-2.123217721744e-12
-1.276792961192e-12
-1.311773212001e-12
-1.652104305515e-12
-1.081652027764e-12
-1.811182817451e-12
-6.732421636034e-13
-2.026248800753e-12
-1.534908563205e-12
0.000000000000e+00
0.000000000000e+00
0.000000000000e+00
0.000000000000e+00
0.000000000000e+00
0.000000000000e+00
0.000000000000e+00
0.000000000000e+00
-1.051800854127e-13
-3.025727163931e-13
-3.336419874625e-14
-4.438226358039e-13
6.200228285413e-13
-2.569043667629e-13
-4.598002454715e-13
-9.895861537160e-14
9.999999999999e+00
-2.816731221229e-12
-2.504894845003e-12
-2.504894845003e-12
-2.934022048649e-12
-2.934022048649e-12
-1.909426408033e-12
-3.092480352736e-12
-8.537326043077e-13
-1.211170921279e-12
1.338020144300e-13
-3.179856280754e-12
1.642856963026e-13
-2.270123098769e-12
-2.506538343783e-12
-2.506538343783e-12
-1.461330923074e-12
9.999999999998e+00
-2.559104653169e-12
-2.506538343783e-12
-2.506538343783e-12
-2.281423785859e-12
-2.945121517163e-12
-8.512915063294e-13
-1.874078501870e-12
-1.874078501870e-12
-1.874078501870e-12
-2.543021517102e-12
-2.543021517100e-12
-2.934022048649e-12
5.602235350976e-13
5.687345552291e-13
1.259032162798e-12
-1.311773212001e-12
9.999999999999e+00
-1.311773212001e-12
5.687345552291e-13
4.198459370805e-13
4.198459370805e-13
-2.543021517100e-12
-2.543021517100e-12
-2.543021517100e-12
-2.543021517100e-12
-1.874078501870e-12
-1.874078501870e-12
-1.722054468785e-12
-1.723125431338e-12
-2.281423785859e-12
-1.593869340734e-12
-2.559104653169e-12
-1.652104305515e-12
9.999999999998e+00
-1.712979396726e-12
-1.712979396726e-12
-2.280145203605e-12
-2.280145203605e-12
-9.135372789446e-13
-1.922038581966e-12
-1.922038581966e-12
-1.922038581966e-12
-4.594083846423e-13
-4.594083846423e-13
1.120517235730e-13
1.120517235730e-13
1.187206279444e-12
-3.107566147639e-13
-1.082311107174e-12
-1.082311107174e-12
9.999999999999e+00
-6.732421636033e-13
-2.090286533265e-12
-2.090286533265e-12
-2.090286533265e-12
-3.089486167323e-12
-2.096181359038e-12
-2.096181359038e-12
-6.350083700945e-13
-6.350083700944e-13
-1.212346214842e-12
-3.342913896985e-13
-2.937075540275e-12
-2.937075540275e-12
-1.534025667554e-12
-2.026248800753e-12
-2.026248800753e-12
9.999999999998e+00
-1.308559135668e-12
-9.476514659209e-13
-9.476514659209e-13
1.091486761828e-12
8.068200776229e-14
-3.179856280754e-12
-1.254383795330e-12
-1.254383795330e-12
-9.605621730860e-13
-3.092480352736e-12
-1.909426408033e-12
-2.007254431907e-12
-2.934022048649e-12
-2.610135243670e-12
-2.610135243670e-12
-1.610971742165e-12
0.000000000000e+00
0.000000000000e+00
0.000000000000e+00
0.000000000000e+00
0.000000000000e+00
0.000000000000e+00
0.000000000000e+00
0.000000000000e+00
0.000000000000e+00
0.000000000000e+00
0.000000000000e+00
0.000000000000e+00
-1.328578437535e-14
0.000000000000e+00
1.400254730191e-13
0.000000000000e+00
0.000000000000e+00
0.000000000000e+00
0.000000000000e+00
0.000000000000e+00
0.000000000000e+00
0.000000000000e+00
3.415033479472e-13
0.000000000000e+00
0.000000000000e+00
0.000000000000e+00
0.000000000000e+00
0.000000000000e+00
0.000000000000e+00
0.000000000000e+00
0.000000000000e+00
0.000000000000e+00
0.000000000000e+00
0.000000000000e+00
0.000000000000e+00
0.000000000000e+00
-2.463357229905e-13
0.000000000000e+00
0.000000000000e+00
0.000000000000e+00
0.000000000000e+00
1.664639568884e-13
0.000000000000e+00
0.000000000000e+00
0.000000000000e+00
0.000000000000e+00
0.000000000000e+00
0.000000000000e+00
0.000000000000e+00
0.000000000000e+00
0.000000000000e+00
0.000000000000e+00
0.000000000000e+00
0.000000000000e+00
-6.015972049556e-14
0.000000000000e+00
-1.786973208497e-13
0.000000000000e+00
-1.305292832491e-13
-1.305292832491e-13
0.000000000000e+00
-6.163053454037e-14
3.823608249142e-14
9.297058296744e-14
0.000000000000e+00
5.282969278731e-14
0.000000000000e+00
0.000000000000e+00
0.000000000000e+00
0.000000000000e+00
0.000000000000e+00
-2.083548193915e-14
-2.083548193915e-14
0.000000000000e+00
0.000000000000e+00
2.704842824892e-14
0.000000000000e+00
0.000000000000e+00
0.000000000000e+00
0.000000000000e+00
0.000000000000e+00
0.000000000000e+00
0.000000000000e+00
0.000000000000e+00
0.000000000000e+00
0.000000000000e+00
0.000000000000e+00
-4.407976781225e-14
0.000000000000e+00
0.000000000000e+00
0.000000000000e+00
1.232287466114e-13
0.000000000000e+00
0.000000000000e+00
0.000000000000e+00
0.000000000000e+00
1.546875910899e-13
0.000000000000e+00
0.000000000000e+00
0.000000000000e+00
0.000000000000e+00
0.000000000000e+00
0.000000000000e+00
0.000000000000e+00
0.000000000000e+00
0.000000000000e+00
0.000000000000e+00
0.000000000000e+00
0.000000000000e+00
0.000000000000e+00
0.000000000000e+00
0.000000000000e+00
0.000000000000e+00
0.000000000000e+00
0.000000000000e+00
0.000000000000e+00
0.000000000000e+00
2.350366019365e-14
0.000000000000e+00
0.000000000000e+00
-1.989509763568e-13
0.000000000000e+00
0.000000000000e+00
0.000000000000e+00
0.000000000000e+00
0.000000000000e+00
8.860510486901e-15
0.000000000000e+00
0.000000000000e+00
0.000000000000e+00
0.000000000000e+00
0.000000000000e+00
6.948156351611e-15
0.000000000000e+00
0.000000000000e+00
0.000000000000e+00
0.000000000000e+00
0.000000000000e+00
0.000000000000e+00
0.000000000000e+00
0.000000000000e+00
0.000000000000e+00
0.000000000000e+00
0.000000000000e+00
0.000000000000e+00
0.000000000000e+00
0.000000000000e+00
0.000000000000e+00
-8.966131868316e-13
-8.966131868316e-13
0.000000000000e+00
0.000000000000e+00
-1.016107351702e-12
0.000000000000e+00
-3.268797624929e-13
-3.336419874625e-14
0.000000000000e+00
0.000000000000e+00
1.150764131253e-13
0.000000000000e+00
0.000000000000e+00
0.000000000000e+00
0.000000000000e+00
0.000000000000e+00
1.611212644869e-13
0.000000000000e+00
0.000000000000e+00
0.000000000000e+00
0.000000000000e+00
0.000000000000e+00
0.000000000000e+00
0.000000000000e+00
0.000000000000e+00
0.000000000000e+00
0.000000000000e+00
0.000000000000e+00
0.000000000000e+00
0.000000000000e+00
0.000000000000e+00
0.000000000000e+00
0.000000000000e+00
0.000000000000e+00
-2.713483385101e-13
0.000000000000e+00
0.000000000000e+00
0.000000000000e+00
0.000000000000e+00
2.296823136953e-13
0.000000000000e+00
0.000000000000e+00
0.000000000000e+00
0.000000000000e+00
0.000000000000e+00
0.000000000000e+00
0.000000000000e+00
-3.218499475653e-14
0.000000000000e+00
0.000000000000e+00
0.000000000000e+00
0.000000000000e+00
1.764752687911e-13
0.000000000000e+00
0.000000000000e+00
4.777112980126e-14
0.000000000000e+00
0.000000000000e+00
3.208875930877e-13
0.000000000000e+00
0.000000000000e+00
0.000000000000e+00
2.622002421740e-13
0.000000000000e+00
1.371293818903e-13
1.371293818903e-13
0.000000000000e+00
0.000000000000e+00
-9.884644564476e-13
-2.750130587538e-14
-1.051800854127e-13
-1.051800854127e-13
-1.051800854127e-13
-3.321781789574e-13
1.338764432521e-14
1.338764432521e-14
-1.166184005607e-12
-1.166184005607e-12
-8.966131868316e-13
-8.966131868316e-13
-8.966131868316e-13
-9.190703658090e-13
-1.132777377683e-12
-1.132777377683e-12
-1.016107351702e-12
-3.492350943664e-13
-3.492350943665e-13
-3.336419874625e-14
4.451463049729e-15
4.451463049729e-15
-4.438226358039e-13
-3.219904199600e-13
-1.212464936997e-12
-6.732421636033e-13
-2.026248800753e-12
-3.946621889154e-13
-1.716124890433e-13
7.887859559480e-14
-8.013633482211e-14
-2.569043667630e-13
-2.569043667630e-13
-3.381457557226e-13
-3.381457557232e-13
-2.445055343820e-13
-2.445055343820e-13
-6.494649040927e-15
-1.585115439120e-13
2.296823136953e-13
-8.623341234663e-13
-9.185583799918e-14
-1.063535484948e-12
-2.713483385101e-13
-2.713483385101e-13
-1.936633887993e-13
-1.695347167142e-13
-1.477734244710e-13
-9.895861537121e-14
-9.895861537121e-14
-4.683430233801e-13
-4.683430233801e-13
9.999999999999e+01
1.000000000000e+02
1.000000000000e+02
1.000000000000e+02
1.000000000000e+02
1.000000000000e+02
1.000000000000e+02
1.000000000000e+02
1.000000000000e+02
1.000000000000e+02
1.000000000000e+02
9.999999999999e+01
1.000000000000e+02
1.000000000000e+02
1.000000000000e+02
1.000000000000e+02
9.999999999999e+01
1.000000000000e+02
1.000000000000e+02
5.000000000001e+00
4.999999999997e+00
4.999999999999e+00
4.999999999998e+00
4.999999999998e+00
4.999999999999e+00
5.000000000000e+00
4.999999999998e+00
5.000000000000e+00
4.999999999997e+00
4.999999999999e+00
5.000000000000e+00
4.999999999998e+00
4.999999999999e+00
4.999999999999e+00
4.999999999997e+00
4.999999999999e+00
4.999999999999e+00
4.999999999999e+00
4.999999999998e+00
4.999999999999e+00
4.999999999997e+00
5.000000000000e+00
4.999999999999e+00
4.999999999998e+00
4.999999999999e+00
4.999999999997e+00
4.999999999997e+00
4.999999999997e+00
4.999999999999e+00
4.999999999998e+00
5.000000000000e+00
4.999999999999e+00
4.999999999999e+00
4.999999999998e+00
4.999999999998e+00
4.999999999999e+00
4.999999999998e+00
9.999999999998e+00
9.999999999998e+00
9.999999999999e+00
9.999999999998e+00
9.999999999999e+00
9.999999999998e+00
9.999999999999e+00
9.999999999998e+00
9.999999999999e+00
1.000000000000e+01
1.000000000000e+01
1.000000000000e+01
1.000000000000e+01
9.999999999998e+00
9.999999999998e+00
9.999999999998e+00
9.999999999998e+00
9.999999999998e+00
9.999999999998e+00
9.999999999998e+00
9.999999999998e+00
9.999999999999e+00
9.999999999999e+00
9.999999999997e+00
9.999999999999e+00
9.999999999997e+00
9.999999999999e+00
9.999999999999e+00
9.999999999999e+00
9.999999999999e+00
1.000000000000e+01
1.000000000000e+01
1.000000000000e+01
9.999999999999e+00
9.999999999999e+00
1.000000000000e+01
9.999999999999e+00
1.000000000000e+01
1.000000000000e+01
1.000000000000e+01
1.000000000000e+01
9.999999999999e+00
1.000000000000e+01
1.000000000000e+01
1.000000000000e+01
1.000000000000e+01
9.999999999998e+00
9.999999999999e+00
9.999999999998e+00
9.999999999998e+00
9.999999999999e+00
9.999999999999e+00
1.000000000000e+01
9.999999999999e+00
1.000000000000e+01
9.999999999999e+00
9.999999999998e+00
9.999999999999e+00
9.999999999999e+00
9.999999999999e+00
1.000000000000e+01
9.999999999999e+00
9.999999999997e+00
1.000000000000e+01
1.000000000000e+01
9.999999999999e+00
9.999999999999e+00
1.000000000000e+01
9.999999999999e+00
9.999999999999e+00
9.999999999999e+00
9.999999999999e+00
9.999999999999e+00
9.999999999999e+00
9.999999999999e+00
9.999999999999e+00
9.999999999999e+00
9.999999999999e+00
9.999999999999e+00
9.999999999999e+00
1.000000000000e+01
1.000000000000e+01
9.999999999999e+00
9.999999999998e+00
9.999999999998e+00
9.999999999999e+00
9.999999999999e+00
9.999999999999e+00
9.999999999999e+00
9.999999999998e+00
9.999999999999e+00
9.999999999999e+00
9.999999999999e+00
9.999999999999e+00
9.999999999999e+00
9.999999999999e+00
9.999999999999e+00
9.999999999999e+00
9.999999999999e+00
9.999999999999e+00
9.999999999999e+00
9.999999999999e+00
9.999999999999e+00
9.999999999999e+00
9.999999999999e+00
9.999999999999e+00
9.999999999999e+00
9.999999999999e+00
1.000000000000e+01
1.000000000000e+01
1.000000000000e+01
1.000000000000e+01
9.999999999999e+00
9.999999999999e+00
1.000000000000e+01
1.000000000000e+01
1.000000000000e+01
9.999999999999e+00
9.999999999999e+00
9.999999999999e+00
9.999999999999e+00
1.000000000000e+01
9.999999999999e+00
9.999999999999e+00
9.999999999999e+00
9.999999999999e+00
9.999999999999e+00
9.999999999999e+00
9.999999999999e+00
9.999999999999e+00
9.999999999999e+00
1.000000000000e+01
9.999999999999e+00
9.999999999999e+00
9.999999999999e+00
9.999999999999e+00
1.000000000000e+01
9.999999999999e+00
9.999999999999e+00
1.000000000000e+01
1.000000000000e+01
2.700256714402e-13
-1.786973208497e-13
-7.937264862124e-15
1.400254730191e-13
5.282969278731e-14
-5.861775177472e-14
4.656371636233e-14
-1.418081374444e-13
2.534799244402e-13
-7.708640134172e-14
3.878308600035e-14
1.006246302884e-13
1.664639568884e-13
-1.328578437535e-14
-2.463357229905e-13
2.066058175939e-14
3.823608249143e-14
6.688415652199e-14
-8.850660220647e-14
-5.789781551908e-14
1.807531270812e-13
1.664639568884e-13
7.710747392974e-14
-2.463357229905e-13
-2.284329816819e-13
1.008149406289e-13
-4.567736011405e-14
-2.463357229905e-13
-2.463357229905e-13
1.173584450106e-13
-2.463357229905e-13
7.643847087683e-14
1.173584450106e-13
8.721893654491e-14
7.643847087683e-14
2.847510962697e-13
2.847510962697e-13
-2.829994654342e-14
-2.829994654342e-14
6.024099989634e-14
8.454081544498e-15
8.454081544498e-15
3.602922257498e-13
8.454081544498e-15
-6.658834809752e-14
-6.658834809752e-14
-1.351117374710e-13
-6.658834809752e-14
-1.351117374710e-13
3.611334288552e-13
3.611334288552e-13
-3.612799684426e-13
6.981491762660e-14
6.981491762660e-14
6.981491762660e-14
-1.067143973598e-14
6.981491762660e-14
2.677869645938e-13
2.677869645938e-13
-7.593891600658e-14
1.629763289545e-13
-7.593891600658e-14
-9.908570710536e-14
2.677869645938e-13
1.629763289545e-13
-9.908570710536e-14
9.218424006745e-15
9.218424006745e-15
9.218424006745e-15
-1.184879712327e-14
9.218424006745e-15
1.780481674718e-13
6.162585374167e-15
5.763771990377e-13
4.107304717081e-14
1.780481674718e-13
2.114672744959e-13
5.763771990377e-13
9.218424006745e-15
2.114672744959e-13
8.721893654491e-14
-3.612799684426e-13
6.981491762660e-14
9.218424006745e-15
9.218424006745e-15
-1.525416029687e-14
2.370641081945e-13
1.475362599364e-13
-2.937917077214e-13
2.370641081945e-13
2.677869645938e-13
-3.283536712518e-13
3.611334288552e-13
-1.334407721851e-13
-1.712623754215e-13
-1.634129199752e-13
2.660842546460e-13
1.282645101677e-13
2.387699699534e-13
1.579704603313e-13
1.579704603313e-13
1.780481674718e-13
5.763771990377e-13
-1.525416029687e-14
5.763771990377e-13
1.519254878742e-13
9.187071660295e-14
1.006246302884e-13
1.498152017040e-13
2.110219970794e-13
2.660842546460e-13
5.665896930588e-15
2.236425964644e-13
1.293666843700e-13
2.387699699534e-13
3.415033479472e-13
7.346587242732e-14
1.400254730191e-13
1.400254730191e-13
-1.328578437535e-14
2.281658536227e-13
5.124433197976e-14
-1.712623754215e-13
1.158924861931e-13
1.292379730722e-13
1.153198719812e-13
2.166090416258e-13
1.296558727993e-13
1.173584450106e-13
-2.463357229905e-13
-2.463357229905e-13
1.920333271465e-13
5.282969278731e-14
5.282969278731e-14
5.282969278731e-14
5.282969278731e-14
6.732027753985e-14
-3.283536712518e-13
8.454081544498e-15
2.838323357909e-14
1.483422371268e-13
2.066058175939e-14
-9.563542120051e-14
-1.109116349431e-13
-9.470271450644e-14
1.664639568884e-13
1.664639568884e-13
1.664639568884e-13
7.830867636543e-14
-5.789781551908e-14
4.532351497394e-14
1.068358658746e-13
9.726790738811e-14
1.685776036062e-13
1.239104786500e-13
1.664639568884e-13
1.006246302884e-13
6.824874414735e-14
6.785053035609e-14
-4.567736011405e-14
1.006246302884e-13
-5.668136513912e-13
-1.328578437535e-14
1.006246302884e-13
1.664639568884e-13
-1.294890632925e-13
-1.334407721851e-13
-8.444777866959e-14
-7.708640134172e-14
-7.708640134172e-14
-1.241954182885e-14
-1.418081374444e-13
-1.418081374444e-13
6.697866564140e-14
-1.418081374444e-13
1.750676665083e-13
1.001265117215e-13
1.146156474249e-13
5.637503218971e-14
1.402566500875e-13
-1.786973208497e-13
-1.418081374444e-13
2.128820391786e-13
-3.321781789577e-13
7.502470720168e-14
2.700256714402e-13
1.851527447290e-14
-2.937917077214e-13
-2.392457065364e-13
-2.392457065364e-13
-5.065826737650e-14
-2.392457065364e-13
3.823608249143e-14
3.823608249143e-14
-1.305292832491e-13
-1.305292832491e-13
-1.305292832491e-13
-1.305292832491e-13
2.677869645938e-13
3.338959059965e-14
3.611334288552e-13
-1.298608624628e-13
1.760631267835e-13
3.602922257498e-13
-2.454437630468e-14
2.671928220882e-13
2.598719374569e-13
4.090237605541e-15
6.981491762660e-14
-7.593891600658e-14
1.987432022161e-13
-7.708640134172e-14
9.056798990909e-14
1.100500950414e-13
-3.612799684426e-13
1.292379730722e-13
2.919585247573e-13
-3.283536712518e-13
2.700256714402e-13
7.643847087683e-14
5.763771990377e-13
5.665896930588e-15
2.016492586363e-14
-6.526760915746e-14
-1.294890632925e-13
-1.328578437535e-14
-5.668136513912e-13
9.218424006745e-15
-1.634129199752e-13
2.677869645938e-13
-3.156435781902e-15
2.677869645938e-13
-2.829994654342e-14
-3.862575956819e-14
-1.328578437535e-14
9.220974207296e-14
-5.668136513912e-13
1.006246302884e-13
-3.283536712518e-13
1.664639568884e-13
7.710747392974e-14
3.415033479472e-13
1.400254730191e-13
-7.708640134172e-14
3.415033479472e-13
6.024099989634e-14
-1.786973208497e-13
-1.418081374444e-13
2.072199438934e-13
5.282969278731e-14
1.282645101677e-13
1.541870239728e-13
5.282969278731e-14
1.291893257499e-13
3.823608249143e-14
-2.829994654342e-14
1.400254730191e-13
2.437248776856e-13
-1.418081374444e-13
1.420226591248e-13
2.175689966803e-13
-1.786973208497e-13
-7.708640134172e-14
-6.163053454037e-14
-6.015972049556e-14
-5.789781551908e-14
-1.328578437535e-14
-8.891415571627e-14
1.938638019012e-13
-8.462526935205e-14
-1.305292832491e-13
1.230411676992e-13
5.282969278731e-14
-8.985615604366e-15
1.146948245250e-13
7.756239849126e-14
1.006246302884e-13
1.318584586560e-13
1.380076963372e-13
9.033014647832e-14
7.027464674001e-14
-8.473812226316e-14
2.066058175939e-14
-1.328578437535e-14
7.035176885635e-14
1.400254730191e-13
-1.786973208497e-13
3.415033479472e-13
-1.786973208497e-13
3.415033479472e-13
1.848112753988e-13
-1.665951851188e-14
8.860510486901e-15
-4.407976781225e-14
2.423427967020e-13
2.292752199841e-13
6.014317212375e-14
9.923893471783e-14
1.263035375671e-13
1.596477625493e-13
-4.438226358039e-13
1.847770395602e-13
2.704842824892e-14
1.273493300977e-13
-1.189681416345e-13
6.184589533403e-15
1.168007636089e-13
6.948156351611e-15
-3.752062822778e-13
-1.496405370945e-13
-1.796329820430e-13
-3.710908498352e-14
1.273493300977e-13
2.704842824892e-14
-2.145604936210e-14
-2.083548193915e-14
-1.124388250369e-13
1.005287871281e-13
6.184589533403e-15
-1.025390635322e-13
1.217742957101e-13
-1.772572327819e-15
1.273493300977e-13
2.163637989021e-14
2.163637989021e-14
-1.985611121978e-13
2.048200186053e-13
2.219893117813e-13
2.219893117813e-13
2.219893117813e-13
2.219893117813e-13
2.219893117813e-13
4.203693746815e-13
4.203693746815e-13
1.447650541034e-14
1.447650541034e-14
1.252308704395e-13
1.252308704395e-13
3.892717098543e-14
8.642174888482e-14
3.892717098543e-14
2.316229462478e-13
2.485842921238e-13
1.193756943835e-13
2.316229462478e-13
8.616709839320e-14
8.616709839320e-14
8.616709839320e-14
-1.977015143229e-13
-1.765415433697e-13
-1.765415433697e-13
-1.765415433697e-13
-1.765415433697e-13
-6.414057860410e-14
-6.414057860410e-14
-2.791642304937e-13
-7.489934516581e-14
-7.489934516580e-14
-3.771376974327e-14
-7.489934516580e-14
-2.791642304937e-13
-3.771376974327e-14
-9.699437032941e-14
-9.699437032941e-14
-9.699437032941e-14
-3.064053359839e-13
-3.064053359839e-13
-3.064053359839e-13
-3.064053359839e-13
-7.489934516580e-14
-2.842500149287e-13
1.568885549853e-13
-1.977015143229e-13
2.361402940045e-13
-2.162421574310e-13
-6.811355340417e-13
1.031511729361e-13
-3.064053359839e-13
7.749905011363e-14
3.161929675037e-13
4.439540064233e-14
-1.977015143229e-13
-1.056967572234e-13
1.031511729361e-13
-2.044903308209e-13
-6.414057860410e-14
-7.489934516580e-14
4.203693746815e-13
4.203693746815e-13
2.502456578799e-13
2.361402940045e-13
1.281957018552e-13
-9.699437032941e-14
-9.699437032941e-14
1.031511729361e-13
-9.699437032941e-14
4.439540064233e-14
-2.083548193915e-14
1.262123791344e-13
-1.025390635322e-13
1.472683190449e-13
4.203693746815e-13
7.292456947502e-14
1.484842768662e-13
1.522184050736e-13
2.361402940045e-13
2.162879374643e-13
2.218887309832e-13
2.218887309832e-13
-2.150051505734e-14
-4.409814747202e-15
1.664806923368e-13
-4.407976781225e-14
-7.489934516580e-14
9.293786481584e-15
2.477779296264e-13
4.678471406108e-14
1.484842768662e-13
-4.407976781225e-14
8.294424461209e-14
-2.814925316154e-14
1.468318145013e-13
7.749905011363e-14
1.794182098905e-13
1.257338098485e-13
1.351794894095e-13
1.990959429213e-13
1.257338098485e-13
1.905816078284e-13
-1.056967572234e-13
1.843001318592e-13
-3.085546323762e-14
-2.083548193915e-14
-2.083548193915e-14
-2.083548193915e-14
7.652140914425e-14